/*--------------------------------*- C++ -*----------------------------------*\
| =========                 |                                                 |
| \\      /  F ield         | OpenFOAM: The Open Source CFD Toolbox           |
|  \\    /   O peration     | Version:  2.2.0                                 |
|   \\  /    A nd           | Web:      www.OpenFOAM.org                      |
|    \\/     M anipulation  |                                                 |
\*---------------------------------------------------------------------------*/
FoamFile
{
    version     2.0;
    format      ascii;
    class       pointVectorField;
    location    "0";
    object      pointMotionU;
}
// * * * * * * * * * * * * * * * * * * * * * * * * * * * * * * * * * * * * * //

dimensions      [0 1 0 0 0 0 0];

internalField   uniform (0 0 0);

boundaryField
{
    walls
    {
      type            normalMotionSlip;
      value           uniform (0 0 0);
      field           C;
      scalarName      lR;
    }

    inlet
    {
      type            fixedNormalSlip;
      value           uniform (0 0 0);
      n               (0 0 1);

    }

    outlet
    {
      type            fixedNormalSlip;
      value           uniform (0 0 0);
      n               (0 0 1);
    }

    periodicx1
    {
      type            cyclicSlip;
    }
    periodicx2
    {
      type            cyclicSlip;
    }

}

// ************************************************************************* //
