/*--------------------------------*- C++ -*----------------------------------*\
| =========                 |                                                 |
| \\      /  F ield         | OpenFOAM: The Open Source CFD Toolbox           |
|  \\    /   O peration     | Version:  2.2.0                                 |
|   \\  /    A nd           | Web:      www.OpenFOAM.org                      |
|    \\/     M anipulation  |                                                 |
\*---------------------------------------------------------------------------*/
FoamFile
{
    version     2.0;
    format      ascii;
    class       volScalarField;
    object      C;
}
// * * * * * * * * * * * * * * * * * * * * * * * * * * * * * * * * * * * * * //

dimensions      [0 0 0 0 0 0 0];

internalField   uniform 0;

boundaryField
{
    inlet
    {
        type            fixedValue;
        value           uniform 1.0;
    }

    outlet
    {
        type            zeroGradient;
    }

    "insoluble.*"
    {
        type            zeroGradient;
    }

    solubleWall
    {
        type            codedMixed;
        value           uniform 0.0;
        refValue        uniform 0;
        refGradient     uniform 0;
        valueFraction   uniform 1;
        name    codedLinearPlane;
        codeInclude
        #{
            #include "addToRunTimeSelectionTable.H"
            #include "plane.H"
        #};
        code
        #{
            #include "../../constant/bcInclude/linearPlane.H"
        #};
    }
}

// ************************************************************************* //
